90
 energy: -127.775026039440 gnorm: 0.000634663859 xtb: 6.4.0 (d4b70c2)
C        -0.13324389196260    0.80788015148851    0.87492069087432
H        -1.19624005186106    0.99408699894334    0.72180140293723
C         0.60637864248697    1.66074866459202    1.57242044958364
H         1.64962715745675    1.43612004260838    1.77436238735373
C         0.16399944084728    2.92875172848011    2.15311518286021
C        -1.13152209585566    3.45340252280450    1.93575843905074
C        -1.51478012055815    4.63770847591259    2.49063414006617
C        -0.63262849899414    5.38370271658910    3.30148966898352
C        -0.99932059817692    6.61021872050778    3.88877780025731
C        -0.11432531725106    7.30337403670839    4.66725271562396
C         1.17634151901825    6.79942510311215    4.89219213810992
C         1.56183246776207    5.61248384838713    4.33563115352020
C         0.67240060683138    4.87294077436752    3.52713427414531
C         1.03810738573442    3.64857550811278    2.93911180255561
H        -1.82656824762651    2.90909566725030    1.31548178712080
H        -2.50872413494175    5.02532984356478    2.31428834224210
H        -1.99478071166092    6.99327997961468    3.71253710715527
H        -0.40123741841641    8.24351076024587    5.11534316310734
H         1.86258920003358    7.35973252474856    5.51059683753457
H         2.55495462055105    5.22133579587977    4.50770213075200
H         2.03553691175644    3.27024988669388    3.12136583064213
C         0.31390119072100   -1.67593085588669    1.68121065065157
H         0.70427226315611   -0.99156985642471    2.44872990410338
C         1.11059674326796   -2.97855739785096    1.77040783012680
H         0.72438961414606   -3.76136422348785    1.12608797296330
H         2.16265969075425   -2.83192056875470    1.53969654470257
H         1.04472420717800   -3.32850058219467    2.80488761925370
C        -1.14556068226936   -1.85517625476672    1.84752934632818
C        -1.85337511454335   -2.88981099462136    1.21967935631690
C        -3.19560111805120   -3.08673044215663    1.47244518512978
C        -3.87496376409146   -2.25852869875640    2.35220122056958
C        -3.19749763722164   -1.21747310570525    2.96924292080769
C        -1.85586008847977   -1.01588261039761    2.72069022878386
H        -1.35059724579756   -3.53460957153424    0.51510046565138
H        -3.71832349620553   -3.89485308998242    0.98155085498530
H        -4.92321786322458   -2.42253460836655    2.55502212797768
H        -3.71868453179820   -0.56522019187480    3.65561131889696
H        -1.33354480070439   -0.21134127418957    3.21953708845253
Br        0.69353071851027   -2.53779548997420   -1.47930373849152
Ni        0.44966406172487   -0.69525224514694   -0.09216160556608
C         1.27291327461785    1.03435525508018   -2.26837594388683
C        -0.06776868437989    0.64072646882431   -2.66493422419889
C        -2.06729781275584   -0.27383015417843   -2.56846468584323
C         3.12917806810891    1.17020742537118   -1.07882553388828
N         1.78849942957726    0.62927093078058   -1.17450219733096
N        -0.85159729253743    0.05072469617705   -1.85196548921249
O        -0.48402476406459    0.83933505021702   -3.91907005924185
O         2.01231010303363    1.81793368597652   -3.05433523798300
C        -1.76565003515784    0.21925209353978   -4.00842916554688
C         3.28641392237162    1.92945304980960   -2.42046782022043
H        -2.19679527327542   -1.36148227841625   -2.53831251976486
H         3.15993072928134    1.85701379152316   -0.22330732458351
H        -1.70026717507594   -0.60042305592583   -4.72843855704925
H         3.52014921125142    2.98808053119572   -2.29482489278167
H        -2.48590672677204    0.95857741566080   -4.36654378113442
H         4.03041454666874    1.46720297823636   -3.07620448298982
C        -3.31114039680915    0.38149480708992   -1.94123238475965
C        -4.70681655679781    1.74793908530869    0.26534595469275
C        -4.95265191685702    0.27450029945468   -0.03801716661610
C        -4.32050356578675    2.49182081683766   -1.00926080216136
C        -3.71658510643609   -0.35847747896261   -0.66697151410254
C        -3.08436658915864    1.86621972121745   -1.64838122600970
H        -5.60358866182913    2.19621553169106    0.69806496502725
H        -3.90498266499824    1.83303079215585    1.00232676451460
H        -5.20488547698351   -0.25897097570813    0.87958910332195
H        -5.15342871088545    2.45108672578021   -1.71568784643431
H        -5.79726831683730    0.18282567399018   -0.72561402923213
H        -4.12346209470739    3.54288519482538   -0.78610324116562
H        -3.91875273955153   -1.40570529249911   -0.90136310908600
H        -2.23270959285106    1.97124899541072   -0.97341318730517
H        -2.88860511409453   -0.34004391118185    0.04254327595498
H        -2.83948483095817    2.40188747192797   -2.56956351065536
H        -4.12429124282128    0.28472045959867   -2.67162865586727
C         4.15326948151800    0.05019878238975   -0.85245425822424
C         6.23940026477335   -1.33406780116288    0.68562170493660
C         6.56217648329112   -0.57123787372185   -0.59562690208988
C         4.80030945624293   -1.84170791702809    0.66017639380017
C         5.58409044170720    0.58407405906434   -0.80000639148797
C         3.83869232158534   -0.67841856685455    0.45323276295384
H         6.92833137802158   -2.17283107411798    0.80010914618617
H         6.37377482820912   -0.67133418287137    1.54410943950376
H         7.58278535370386   -0.18554171978533   -0.55306939776989
H         4.67822946067008   -2.56248945935088   -0.15090037571714
H         6.49671803024943   -1.25185059023070   -1.44727928125901
H         4.57412134976260   -2.35140571536902    1.59915518010776
H         5.83343774497554    1.11743450700113   -1.71976342728371
H         3.92662320028181    0.02188394182529    1.28817215185481
H         5.67431254125067    1.29094174500463    0.02877794734739
H         2.79876057990659   -1.03464468909746    0.42201954285172
H         4.06537914976095   -0.66286358427374   -1.68063705597250
