85
 energy: -128.722288071694 gnorm: 0.000760376173 xtb: 6.4.0 (d4b70c2)
C         0.99626528809463   -0.39537703128507    0.04847478162042
H         1.67983723047204   -1.24636326033694   -0.00032351083252
C         1.47441699147987    0.84546434921909   -0.03713279762146
H         0.80956838819196    1.70327177692385   -0.02459086239445
C         2.88948949471986    1.19898363245773   -0.07804800045538
C         3.90031635641127    0.28453620683231   -0.38950002168994
C         5.22098284957926    0.66829638935652   -0.40092077485569
C         5.58669838761748    1.98216356070923   -0.10034574985294
C         4.59150097766427    2.90488369384287    0.20024352943020
C         3.26661838861560    2.51029949830014    0.20605856861349
H         3.64405176480871   -0.72987570859685   -0.65306588799800
H         6.00260375785064   -0.03292843131762   -0.64761366277591
O         6.92399450064724    2.25211808658994   -0.13398753228622
C         7.34813723352557    3.56602975122669    0.12915280670473
H         8.43333380042331    3.55036137855807    0.03914207794871
H         6.93593914033537    4.27534062063680   -0.59655621168657
H         7.07520992735714    3.88322167896476    1.14160591083812
H         4.83305072534310    3.93207711614519    0.42784730831835
H         2.50505464824237    3.24153820774729    0.44189683609161
C        -0.44781420620877   -0.71396777087882    2.08892282492011
H        -1.17744679324093   -1.51260835604092    2.29185460016624
C         0.85049148074312   -1.06557190010329    2.80300403984405
H         1.18778948694334   -2.06397452225874    2.53466828575040
H         0.67203789365494   -1.05403798815777    3.88248779125823
H         1.65507909199778   -0.36722568670782    2.58992495081151
C        -1.01678454710063    0.57913371517647    2.49228337201428
C        -0.22505167606987    1.71481998757167    2.71152799387736
C        -0.78206945018483    2.89011201336744    3.17136009259550
C        -2.14020773890375    2.97198728033580    3.43552102115485
C        -2.94112437353846    1.86087039111062    3.22776935655449
C        -2.39000583968366    0.68756778492709    2.75932565928150
H         0.83459672031435    1.67176178189507    2.51324425179002
H        -0.15117602743356    3.75263654844241    3.33386936786263
H        -2.57098183450772    3.89160404331012    3.80219102794992
H        -4.00024704658072    1.91229505336090    3.43676289160681
H        -3.02549960895245   -0.17661898808355    2.61532077197242
Br       -0.68657640958313   -0.81271048833454   -2.24998050579800
Ni       -0.77632339873351   -0.92194194482691    0.11564266273820
C        -3.14237374523568   -3.56282202034862    0.72577189896552
C        -3.56281953682878   -2.20192500722282    0.23664638155458
C        -1.68952155346378   -3.90480805950346    0.53872708994133
C        -3.56759499789103    1.27214755560705   -0.14822759089609
C         1.22375592499266   -3.81178581758132   -1.07111673995426
C        -3.76701050696885   -0.15724408558768   -0.58767147957544
C         0.50641309296656   -3.96231396522125    0.24641560541477
N        -2.88011081303559   -1.15366445223160    0.03164758456110
N        -0.70189486144748   -3.14806556735378    0.30628294965023
C        -4.63335355975893    2.12175824662759    0.11414987421512
C         0.53833661790289   -3.98392047362624   -2.26559381258915
C        -2.27890439094502    1.78974259859140   -0.11679646102012
C         2.57542632783019   -3.49643867371595   -1.09987190249082
C        -4.40682436876000    3.45256073071391    0.42420819184487
C         1.19210101019739   -3.82464185964184   -3.47339125532764
C        -2.05299831544206    3.11819596933798    0.18150422014869
C         3.22949498382931   -3.33996348385882   -2.30889122834881
C        -3.11979373273389    3.95576360411577    0.45756270106955
C         2.53673421770508   -3.49917320065832   -3.49654923121142
O        -4.88891483322041   -2.11466151735536    0.00186603177395
O        -1.42314722415182   -5.21885741881906    0.69272439732430
C        -5.16053731014334   -0.76156591489466   -0.33889211137961
C        -0.02756851916594   -5.39552028314036    0.49366918427522
H        -5.65177183129491    1.76701701987374    0.06087756604726
H        -0.51686868211943   -4.21540543494039   -2.25276532383470
H        -5.67090390719713   -0.29849797274731    0.51413174726629
H         0.12641649179130   -6.04823631686242   -0.37097138170782
H        -3.52522785891067   -0.18322533812495   -1.66384589541760
H         1.17371660266065   -3.64339004024625    1.05544010713059
H        -1.43798877962264    1.13662321258496   -0.34325958964894
H         3.11777800895325   -3.37113372885032   -0.17155790091228
H        -5.24700135860820    4.10035631448768    0.62812903601751
H         0.64428299603501   -3.93626621706226   -4.39578139378230
H        -1.04539506028437    3.50537186058902    0.18979139774873
H         4.27884096197342   -3.08372260179258   -2.32223118295488
H        -2.94939004563327    4.99660703698687    0.68870210206586
H         3.04364105111117   -3.36215028463393   -4.43963712002743
H        -5.80950647586329   -0.73879398343264   -1.21401731798878
H         0.39834456680417   -5.86515041728669    1.38356821632080
C        -3.45654203524542   -3.64605164254529    2.23206226237975
H        -3.21983633267330   -4.64127560860312    2.60068888100894
H        -4.51408618411597   -3.45116290054419    2.39535994381541
H        -2.87365184560487   -2.91661442722176    2.79203548852757
C        -3.97057075984935   -4.61473070308203   -0.03255640453944
H        -3.70750332178070   -5.60966053470871    0.31524875082561
H        -5.03012741701303   -4.44514898799127    0.13467260879067
H        -3.77201826432636   -4.55081767862378   -1.10066615849478
