78
 energy: -120.269213841576 gnorm: 0.000376869846 xtb: 6.4.0 (d4b70c2)
C        -3.33205363086696   -1.13611935549756    1.31411437448943
C        -3.03086931222194   -4.75298914721471    3.59911999606452
H        -4.00104324390078   -5.02596413188108    4.01343949788043
H        -2.34454868576475   -4.60468987700320    4.43174503689701
H        -2.67199199169439   -5.57973306473510    2.99091738166599
C        -3.06994474441149   -2.34268020302043    0.66789108392537
C        -3.14532669509225   -3.49758114775511    2.78847444790411
C        -3.46745191201394   -2.29361460106731    3.40681049945950
C        -2.95480252120798   -3.50620822950486    1.41409555303343
C        -3.56987762618459   -1.11561584991717    2.68561151758783
H        -3.63742157217053   -2.27502099019952    4.47385075117949
H        -2.72876559903853   -4.43567789873295    0.90911667170417
H        -3.82168384876037   -0.19828773342818    3.19692117046858
H        -2.99442939936252   -2.39911084294815   -0.41171313602356
C        -4.14357484641248    0.35638061375726    0.16685473954768
H        -3.45947170510191    1.11840275221186   -0.28836865739373
C        -4.82709885793886    0.02949002467650   -2.21526653699935
C        -5.70991479546020   -1.46710009827487   -0.56902016685314
C        -6.42181125614044   -2.12565073633872   -1.55366190136092
C        -5.54098907939216   -0.62972544120525   -3.19999378488607
C        -6.33381636480821   -1.71652019297976   -2.87434290743526
C        -4.88307060111455   -0.38853481295848   -0.88714469729065
H        -5.78485258421917   -1.79699029034581    0.45679973255743
H        -4.23687676641098    0.89844545041440   -2.46915328760040
H        -7.05014665405058   -2.96337608176665   -1.28896413456814
H        -5.48595182473459   -0.29271798281454   -4.22571508094470
H        -6.88651121795549   -2.23529502564759   -3.64323877898773
C        -5.10699702875062    1.07107913091324    1.11874236491177
O        -5.93425478578092    1.96893815425560    0.41151402940708
H        -5.72108817363830    0.33968101551923    1.66310661759941
H        -4.56162340472523    1.68946710366504    1.83407559637777
H        -6.45322592385782    1.47384021405671   -0.23341007929036
Br       -1.71330230056309    1.97068118677322    2.03495050654193
Ni       -2.06443251147935    0.06096976618159    0.52923175736218
C        -0.06461120930201   -0.80711545571092   -1.23793330138402
C         0.48154465705586   -0.97156736365764    0.09178719966318
C         0.60812711546474   -0.78548839315886    2.28973274867624
C        -1.39603606774699   -0.07418218941379   -2.83255152036278
N        -1.19683979758170   -0.23061706063258   -1.40620999148331
N        -0.21970057051123   -0.65107489675817    1.11117489427954
O         1.73716560356758   -1.37900459324700    0.29987057205402
O         0.60860675736364   -1.19940421898564   -2.32245082693043
C         1.93916291901993   -1.32914253366360    1.71607851894330
C        -0.21088109483763   -0.86231443491729   -3.44093848151805
H         0.72744244795053    0.20972152092246    2.73334291959718
H        -2.36254941451788   -0.49871991241813   -3.12184261784329
H         2.16382141640033   -2.33925274438394    2.07004516056880
H        -0.52466160011261   -1.78795058906434   -3.93249390549411
H         2.79187071691045   -0.67924596998829    1.92058952095028
H         0.37783263036849   -0.26751511029412   -4.14204759950701
C        -1.35319900958335    1.42202143896670   -3.19498685301819
C        -1.65350845408843    1.95153305226493   -7.44026131534121
C        -0.45038434965596    2.17692081983887   -6.79519490466760
C        -2.76333780863308    1.56871574961500   -6.70606150401278
C        -0.35660369846029    2.01353544147573   -5.42388268494794
H        -0.41548433085884    1.84218563697451   -2.82356893196762
C        -2.66739656236947    1.40690236059916   -5.33621441351471
C        -1.46278049444099    1.62565615933224   -4.67862500872911
H        -2.17061196222869    1.92920328796185   -2.67798766983418
H        -1.72798340773519    2.07910191166820   -8.50973937934888
H         0.41801533330874    2.48288591931529   -7.35961185851717
H        -3.70754682825348    1.39961180482525   -7.20256732684947
H         0.58454901699761    2.20440700906736   -4.92688071622090
H        -3.54004772650700    1.11708541804314   -4.77039890343727
C        -0.05300192870700   -1.70021940549353    3.32600148749451
C         2.26046948482601   -1.75208854376082    6.93085671837974
C         2.24967821087256   -2.86096991965004    6.10356901945001
C         1.51177601082879   -0.63603329251544    6.59423379841095
C         1.49826024601456   -2.85127838085818    4.94058005695587
H        -0.16889167933143   -2.70221565574489    2.90644448434156
C         0.76001396255878   -0.62821870906413    5.43402073153379
C         0.74845316746329   -1.73623830600050    4.59398390020764
H        -1.04682873600936   -1.29371557103150    3.52312259700111
H         2.84715466178126   -1.75881518298045    7.83744459471269
H         2.82671058171387   -3.73659720904760    6.36317703651509
H         1.51200183015791    0.22975277119209    7.23946115491049
H         1.48797426979744   -3.72472227984169    4.30275483108453
H         0.17037715634933    0.23945594306996    5.17625759230192
