98
 energy: -140.344274359911 gnorm: 0.000366911428 xtb: 6.4.0 (d4b70c2)
C         0.04834154218768    0.65607989141712    1.22062574784756
O         1.08763946810213    0.49896323474069    1.79119508035030
C        -1.18723781825917    1.25753889518399    1.84464898116980
H        -1.76807751818767    1.82754229828150    1.11783213001964
H        -1.80336923529549    0.42008887678093    2.18184717912525
C        -0.83125582076080    2.14178303094433    3.05146655587022
H        -0.25235364108832    3.00107248798542    2.70808354222406
H        -0.21285670079257    1.56986280840592    3.74550192712812
C        -2.09559773732981    2.59827175910477    3.71781626599612
C        -2.81813559713336    3.66285013390988    3.19262905324381
C        -4.00530745867469    4.06587128384944    3.77546579802480
C        -4.48735007607916    3.40729938626627    4.89421467067459
C        -3.77653427295205    2.34419076636040    5.42370294636423
C        -2.59048780975928    1.94022431124871    4.83602633933939
H        -2.44410358112393    4.17770724027500    2.32049196998632
H        -4.55611138338408    4.89492659019864    3.35579482088321
H        -5.41347475716492    3.72178249489166    5.35188906708994
H        -4.14725793239697    1.82715645119880    6.29673312229376
H        -2.03842791311760    1.11023105232159    5.25479369958465
C         0.49263073058266    1.68346517720045   -1.20246179742826
H         1.15893226122071    2.14513248193661   -0.45841330716370
C         1.28422871081827    1.46963753276366   -2.48801610609171
H         0.63925940289890    1.28301582731019   -3.34145761650554
H         1.98137404303574    0.63809118732536   -2.39099541141898
H         1.86769740927207    2.37292400930180   -2.68768334684691
C        -0.74085416777237    2.47351990410264   -1.33510749128676
C        -1.69623334765326    2.25097759741721   -2.33908357933035
C        -2.83269869844032    3.02195755752091   -2.42655692434806
C        -3.06717901824840    4.07076914552881   -1.53551319372393
C        -2.10514247981556    4.32540529357082   -0.55827752716267
C        -0.97955052486319    3.53922817779970   -0.45163936305546
H        -1.56041931671262    1.44148334854786   -3.03916144785922
H        -3.54586171315543    2.82563288607231   -3.21364763930769
C        -4.28876353419395    4.87833600444831   -1.61896772877321
C        -4.24782808448401    6.25822120087368   -1.42596277015599
C        -5.40130815714818    7.01535644117902   -1.50456873047730
C        -6.61734191213519    6.40774208033258   -1.76966695716087
C        -6.67117558694669    5.03694386459348   -1.96015901003784
C        -5.51805670026087    4.27877502271760   -1.88895137231434
H        -3.30007874242755    6.74200236256699   -1.23832379874517
H        -5.35204857266729    8.08524948935285   -1.36136036143702
H        -7.51854535670929    7.00003035962668   -1.82872736774271
H        -7.61728721279350    4.55661272510798   -2.16395149249625
H        -5.57079464655921    3.20804368196759   -2.02377677748067
H        -2.25592555959940    5.14327681323296    0.13254104010213
H        -0.24475458241076    3.76252630415223    0.31066265143407
Br       -0.63553789161425   -1.14922022943800   -2.40939950486031
Ni       -0.00797327545311   -0.15111519811673   -0.40778870387328
C        -0.03366571653266   -2.76115845695411    0.65034828086745
C         1.33521055574630   -2.60989443045380    0.18331478453761
C         3.16257125289231   -1.74516020684228   -0.69498612612277
C        -2.15912101610334   -2.30603414058750    1.06942627738574
N        -0.86609675081326   -1.79325536100643    0.65657550368520
N         1.79909302238216   -1.50782931986197   -0.26002192385147
O         2.12243347511884   -3.68839564745306    0.14989376186770
O        -0.47194535290408   -3.95923907189736    1.03660413793967
C         3.34305769671409   -3.26808350337444   -0.45269698044315
C        -1.87348344953465   -3.81718184376874    1.26439238564993
H         3.22891392415707   -1.49441375285949   -1.76014448926997
H        -2.43923558815439   -1.82807761351544    2.01844406782650
H         3.48571584474779   -3.83503453555903   -1.37603516442245
H        -2.10055291040604   -4.17619592346020    2.26989934723274
H         4.15599047697499   -3.49291703663354    0.24179758433747
H        -2.39602844134032   -4.43536341401276    0.52871753261931
C         4.18900935072092   -0.89935471047568    0.07878867558123
C         6.31556850676567    1.13382173392479    0.27991537227711
C         6.62395228659751   -0.35762240396052    0.35930738471308
C         4.89786813321880    1.40579664151370    0.77151845671599
C         5.60359701668903   -1.16245864285722   -0.44232438708445
C         3.88813795069257    0.59379765300549   -0.03218362351851
H         7.03548296767798    1.69470917247964    0.87936085482143
H         6.41028400810495    1.46761457412805   -0.75601469599859
H         7.62764216021689   -0.55324714705343   -0.02382156166800
H         4.81946416657817    1.13847016018021    1.82753618035444
H         6.59662830595273   -0.67798833803591    1.40348805006353
H         4.66956438375060    2.46943555696481    0.67927570282991
H         5.85095057776123   -2.22449432331938   -0.38396368993002
H         3.93577026212557    0.89446751588558   -1.08062168137844
H         5.65556648948862   -0.86838363697939   -1.49355085829543
H         2.88296051546902    0.78331320352030    0.33825048847299
H         4.13186015750772   -1.18668399396040    1.13547925404634
C        -3.23952084092895   -1.99493740283081    0.01970044679848
C        -5.75596333075229   -0.81175485206720   -0.93909715629000
C        -5.60968679268862   -2.31230416335234   -0.70543687142458
C        -4.40298916821898   -0.19021406303242   -1.26963310958988
C        -4.59270360863806   -2.59520615019320    0.39885413098909
C        -3.40327819963489   -0.48491678157263   -0.15928782410680
H        -6.45905439781641   -0.63275070502003   -1.75452703465689
H        -6.16048900311901   -0.34206517585658   -0.03867078620785
H        -6.57539542995962   -2.74407696583880   -0.43439016906026
H        -4.02378592502195   -0.59850251010248   -2.20791891976756
H        -5.27486208746596   -2.78859110426841   -1.62902297045171
H        -4.50262326497914    0.89031712697905   -1.38808893929350
H        -4.51230802728791   -3.67335703846921    0.55217190170913
H        -3.75460391912541   -0.04048065932912    0.77621114487663
H        -4.93637112672810   -2.15041860567640    1.33678864457319
H        -2.43448180722003   -0.02890450745128   -0.41263978632077
H        -2.91278725524638   -2.42114763102107   -0.93499544529643
