98
 energy: -155.513567511103 gnorm: 0.000565201092 xtb: 6.4.0 (d4b70c2)
C         1.36658946395844    1.67943520726650   -0.49453708071688
H         2.04832711183736    1.67962234013029    0.36152160961176
C         1.17783507683688    2.82029716445100   -1.15720732712749
H         0.50272849522334    2.87132169204952   -2.00349247394953
C         1.79026313666561    4.09806847191121   -0.79778725333564
C         1.20059855218141    5.27670432958246   -1.25945947334163
C         1.73425205400098    6.50940712230239   -0.93855377487810
C         2.87529082365329    6.59233028265418   -0.15711082831721
C         3.47877314424853    5.43048308329165    0.29598708171222
C         2.94377525001117    4.19606560833598   -0.01752778564497
H         0.31103582640198    5.21738262700287   -1.86993111219770
H         1.26153856849899    7.41008263031822   -1.30240785219159
H         3.29607218194359    7.55550711276755    0.09091047467576
H         4.37699195509940    5.48742522000487    0.89430537230811
H         3.44326568126220    3.30203976799731    0.32635603273873
C        -0.74810946769097    0.67523982082505    0.46055227540244
H        -1.47422948625449   -0.05330607599576    0.07289724345207
C        -1.41063719301499    2.05150237713629    0.44265293802959
H        -1.91683099205470    2.22165109137389   -0.50854703745187
H        -0.70559187524630    2.86975423470544    0.60671626718111
N        -2.44701457627107    2.08019035214596    1.46357235436767
H        -2.17452461244000    2.42411238876743    2.36764200642022
S        -4.02710077626536    2.41822142354581    1.11223003033144
O        -4.14126813788640    2.94519082697032   -0.21777598287426
O        -4.55202494108973    3.18557269854298    2.20629544090388
C        -4.82610289671504    0.81493840300774    1.15681336850003
C        -6.15654151531692    0.76168055577491    0.79030484934678
C        -6.83018769148732   -0.44735831115124    0.84432149592433
C        -6.16313511480998   -1.58898537694580    1.25953826976437
C        -4.83016805633453   -1.52245187699902    1.63051402121848
C        -4.15742610150481   -0.31165620763726    1.58710331604826
H        -6.64278198382063    1.66979717342263    0.47079688036936
H        -7.87127830269231   -0.50020028845774    0.56348164649228
H        -6.68647600954038   -2.53306896728831    1.30057365737302
H        -4.31696154290276   -2.41245415357095    1.96438430553932
H        -3.12609121909278   -0.23179256446019    1.89128928833295
C        -0.27490968085063    0.26468829506965    1.78720503234205
C         0.39004594474111    1.14508846809061    2.65425373866688
C         0.80223229200847    0.73693020598444    3.90685429483157
C         0.56255093931362   -0.55870644923650    4.33945714738942
C        -0.10264136513182   -1.44252849591171    3.50316090754031
C        -0.51403312656503   -1.03751800855926    2.25043269391093
H         0.58987880672622    2.15736482285330    2.33463957086752
H         1.31480130729224    1.43392357827197    4.55491877947472
H         0.88235365017527   -0.87463901340004    5.32153009746055
H        -0.30366095236361   -2.44972642141943    3.84136858225273
H        -1.04297152895102   -1.72985610551908    1.60745152068881
Br        1.66420354712920    0.03330847899833   -2.88457299591431
Ni        0.73012569415464   -0.03699720864218   -0.79915189089122
C         1.12773632179813   -3.50208833537011    0.19871749520510
C         0.07046870491415   -3.04733863901117   -0.76338170548963
C         1.88818014677415   -2.41382713820552    0.89768695338427
C        -2.32930962089698   -1.20908156796941   -2.22220206340082
C         4.40475000560784   -0.51210009938984    0.63085043943268
C        -3.41928414170608   -2.02150547111299   -1.93153550107403
C         5.38175005199235   -1.33779280240421    1.17709497067691
C        -1.07623918775707   -2.02106057279897   -2.35036210182015
C         3.10586187823721   -0.64660803993647    1.38385640801446
C        -1.54226067562086   -3.49429121181239   -2.24646777032633
C         3.37683516033590   -1.75285063200150    2.43349555564826
N        -0.12368427914285   -1.89289113455216   -1.25015508820145
N         2.07191370038999   -1.21240838107753    0.53055759634958
C        -2.47161357474284    0.15207710380022   -2.40838392991230
C         4.66361538882139    0.25158631020390   -0.49064364286640
C        -4.68241878273359   -1.47088116575452   -1.83580506152429
C         6.64421101925742   -1.38730093805830    0.61840708502936
C        -3.74012137972588    0.70233748433104   -2.30677245936327
C         5.93031887881551    0.19456700907874   -1.05220170982772
C        -4.83172175500653   -0.10556690222553   -2.03123094842775
C         6.91180835495745   -0.61193351987750   -0.50030847460733
O        -0.67516899928232   -4.05260257962400   -1.26255966122410
O         2.56771407466092   -2.83484436029969    1.97771553048512
C        -3.01762992781463   -3.46433233538306   -1.79918126808951
C         4.87353024102378   -2.09426422626088    2.37038280284780
H        -0.54279821568413   -1.78106286014099   -3.27762204746925
H         2.76771131026316    0.29471293856261    1.82301663075269
H        -1.40801613954097   -4.06379058033575   -3.16860626373672
H         3.04525902207311   -1.49509684529290    3.44370729958311
H        -1.60911612069144    0.76196045361271   -2.64140247178902
H         3.89633832281077    0.86322763861937   -0.93830949362238
H        -5.53967935069444   -2.09354369833331   -1.62724793357207
H         7.40595261666564   -2.02475885265956    1.04275955419791
H        -3.88404693365244    1.76259042347155   -2.43814642015003
H         6.14443526352359    0.78015705333893   -1.93261790287673
H        -5.81527392281241    0.33449602021329   -1.97736883714253
H         7.89327472503408   -0.64589938357234   -0.94921994670495
H        -3.63821724111814   -4.11769337256704   -2.41222086734033
H         5.01254318610664   -3.17131931149104    2.26157208095963
H        -3.09953908145068   -3.80129719793727   -0.76201974247676
H         5.38159108263408   -1.77913135158861    3.28349402344615
C         0.52938973366004   -4.48540480218465    1.20979703723920
H         1.31280731498864   -4.87398440573474    1.85409074303669
H         0.05772959820716   -5.30990736041488    0.68141696062999
H        -0.21550335827672   -3.99229798767860    1.82987029009269
C         2.18608581527390   -4.21823073513626   -0.67362983038439
H         2.98446572757078   -4.59951362697576   -0.04152367394476
H         1.72521490765883   -5.04812381308701   -1.20383753173434
H         2.60961577722357   -3.52366752733354   -1.39762083054962
