98
 energy: -155.511495929695 gnorm: 0.000419529442 xtb: 6.4.0 (d4b70c2)
C         1.73547693326468   -0.12799393290308   -1.68270126343585
H         1.49109530485627    0.66185155030115   -2.40152260518601
C         2.35362442793989   -1.23275195803787   -2.09786583890030
H         2.64528641367152   -1.99704936228292   -1.38317744254185
C         2.63919864927756   -1.58292202430127   -3.48648658606394
C         2.93135215113705   -2.91373588351504   -3.79374763585455
C         3.20190274609782   -3.29982521114695   -5.09165291352777
C         3.19399410213310   -2.36322646413347   -6.11230805367913
C         2.91586888557281   -1.03774241176311   -5.82028620590835
C         2.63898208555106   -0.64956241730025   -4.52401991753703
H         2.94056382333152   -3.64872281238411   -3.00083686583604
H         3.42430976336890   -4.33463783400763   -5.30974294922129
H         3.40998378785727   -2.66274600758909   -7.12729060256650
H         2.91983298053551   -0.30029368796469   -6.61037948607166
H         2.44630814190775    0.39120499884331   -4.31222114458071
C        -0.38904820529806   -0.77412321592647   -0.32369358581014
H        -0.88056777004608   -0.28052479892718    0.52447686301712
C        -1.22199846680048   -0.48019798082538   -1.56956635420097
H        -1.26762571962511   -1.35481477589267   -2.21896820295945
H        -0.86900682665340    0.36931921657117   -2.15804398579028
N        -2.60554085782311   -0.18265673831216   -1.20755874515889
H        -2.67595505804022    0.64815719593160   -0.63454994146555
S        -3.41441261713325   -1.42438514683436   -0.41119972641368
O        -3.28584188060175   -1.25885375588482    1.01455046075912
O        -3.03573687225965   -2.66725269131356   -1.00262987025566
C        -5.08734786078555   -1.01175344591201   -0.87827727419380
C        -5.57080406509931   -1.47212058202826   -2.08705582994428
C        -6.85375335392825   -1.12533926062614   -2.47677482500487
C        -7.63127263544563   -0.32245803844642   -1.65582424275494
C        -7.13502405637139    0.13346749119757   -0.44455034455020
C        -5.85216270682307   -0.21249947552690   -0.05181026859969
H        -4.93763792034932   -2.10219219295874   -2.69054708991241
H        -7.24820348753856   -1.48094982189165   -3.41641273295519
H        -8.63208749058165   -0.05418109224828   -1.95979784060471
H        -7.74674847893827    0.75395846696543    0.19272777685341
H        -5.43873205246945    0.11073429224457    0.89070752570536
C        -0.23708387420251   -2.19661561137892   -0.01421963955150
C         0.10687172919723   -3.15060356930991   -0.98179713460658
C         0.13635228519649   -4.49317268084920   -0.67113240232482
C        -0.19592140398883   -4.92761232999490    0.60211870243861
C        -0.53743833290603   -3.99924413227438    1.57224619666885
C        -0.53350967755308   -2.65383174536208    1.27748828663172
H         0.34529459223718   -2.83304172639849   -1.98572059995898
H         0.40067736541199   -5.21183579003857   -1.43389806651340
H        -0.19741232795095   -5.98229975204472    0.83477400417314
H        -0.81922209462490   -4.33016887348783    2.56106510116909
H        -0.82316258264534   -1.94243008645194    2.03756593304397
Br        3.46554284252385    1.07239712407539    0.19035978272093
Ni        1.31769658424480    0.27141723904634    0.08308920226323
C        -0.91876507494326    1.87747585210070    2.37860268789475
C         0.16777474837364    0.94431209284798    2.83075008849402
C        -0.84756040236258    2.27886998571188    0.93300598055631
C         2.14799226874930   -1.73023151552223    2.84737317538891
C         0.66321355315528    4.23835279558708   -1.02569603058514
C         1.57837982484386   -2.42990674600502    3.90447061848162
C        -0.13603053493684    5.36640097769607   -0.87818113120325
C         2.01361392686715   -0.25086269550474    3.05193615957954
C        -0.17220240152386    2.98396511085117   -1.04192835807473
C         1.33248388770880   -0.09350713635412    4.43480396663438
C        -1.62245712455433    3.47909762870583   -0.79754125004720
N         1.08629981309859    0.40708259076848    2.14338845152342
N         0.11857185083231    2.15946659554042    0.11762682476702
C         2.76453229073620   -2.38219982770253    1.79887230692901
C         2.03840849734150    4.33722878791445   -1.09996368015416
C         1.64983140657771   -3.80860207977086    3.93565232670699
C         0.43820885830329    6.62130881980502   -0.81652292439413
C         2.82105642256456   -3.76653645012191    1.82751124180756
C         2.61015809470680    5.59898754609381   -1.03154156073631
C         2.27869104197938   -4.46958030337075    2.89032795637531
C         1.81923026947236    6.72817797256063   -0.89433251339276
O         0.20310171672717    0.73577108051355    4.16103028410498
O        -1.92185728070903    2.97796983831227    0.50502240615708
C         0.94342472604975   -1.50762685722359    4.90709081078995
C        -1.59491896925526    5.01587902313814   -0.81622532898048
H         2.98428975416377    0.25156545409833    2.96383193233566
H        -0.03568328202966    2.41854304399387   -1.96646425293574
H         1.94905425243465    0.42659900898451    5.17202852378351
H        -2.36104339659009    3.06667144338859   -1.49257906199244
H         3.20757073537839   -1.82179003780720    0.98762887288391
H         2.65491351477848    3.45730875692819   -1.18775383637089
H         1.22502781125486   -4.36281263241342    4.75992123426627
H        -0.17825371474811    7.50134939233432   -0.70552200974210
H         3.30025089480874   -4.30036207408567    1.02092694948996
H         3.68347983680417    5.69546538503120   -1.08120847523173
H         2.34370347248200   -5.54736407545050    2.90613958497784
H         2.28011369637065    7.70345248906639   -0.84263413461499
H         1.29203646646234   -1.70259544722560    5.92154220304959
H        -2.07411810761345    5.41320129573204    0.08046642186613
H        -0.14457455148354   -1.61603005104106    4.89921841617003
H        -2.13093961462721    5.40275949725781   -1.68478925973182
C        -2.29141402296445    1.28940605239696    2.73053574799717
H        -3.07064631999934    2.00190612508986    2.46973384602892
H        -2.33383889892782    1.09590054418476    3.79988024482607
H        -2.48357215263929    0.35534159498532    2.20288067229560
C        -0.70374027615299    3.19944138309378    3.15090934658843
H        -1.48505147585126    3.90846150342964    2.88807844406172
H        -0.74036572485619    3.00809175395800    4.22014306650982
H         0.26447077490954    3.63068525079655    2.90001339386229
