93
 energy: -148.000892930620 gnorm: 0.000611651829 xtb: 6.4.0 (d4b70c2)
C         0.92928445562550    1.70874918646849    0.04082969325412
H         1.60882818206139    1.54968559358593    0.87941418400484
C         0.96120891846167    2.86742858287844   -0.62907675723346
H         0.28375934553841    3.05420050622700   -1.45607913991213
C         1.92426860445628    3.93247419136907   -0.37387316995463
C         2.23715185678860    4.83132903127554   -1.39615875253764
C         3.14066867738613    5.85406416786508   -1.18553861959696
C         3.74068696399300    6.00954688114888    0.05382451200743
C         3.42668110933047    5.13405433117401    1.08116171841324
C         2.52934677802122    4.10495232042277    0.87314619737630
H         1.77710917087006    4.70870708803236   -2.36587803634894
H         3.37783849123408    6.53500866477402   -1.98986761458422
H         4.44423064645091    6.81173160664902    0.22001661507990
H         3.88230500449933    5.25811295151141    2.05320853735917
H         2.27457815353744    3.44659975971897    1.69092674962735
C        -1.03136513140253    1.07662405189549    0.77210799287887
H        -1.38268848752122    0.04367904821848    0.75826739505905
C        -2.04310856304812    1.93116132370757    0.02735871391998
H        -2.21846605768869    1.50811142102805   -0.97193081439222
H        -1.69727240189062    2.96007502038072   -0.08420819293018
N        -3.28720642642379    1.94959715588746    0.78566424795971
H        -3.86222239842352    2.76182979410787    0.62514532610016
S        -4.23816033490605    0.58023286916714    0.69683166697410
O        -3.99742160396242   -0.13614026321576   -0.53066766349818
O        -5.57755839681068    1.00368429572465    0.97755007127567
C        -3.65222531024529   -0.40374441979086    2.06501437303808
C        -3.22230795717118   -1.69914479538511    1.85734150374677
C        -2.80154977469969   -2.45431011857266    2.94018390891265
C        -2.82392168071144   -1.90403850845378    4.21235580775995
C        -3.26077314725484   -0.60268435915877    4.40810266302503
C        -3.67853525197776    0.15487704281701    3.32690959393821
H        -3.22782194625568   -2.09765708043932    0.85450697502445
H        -2.46336466399274   -3.46927154115932    2.79218924600337
H        -2.50132319124651   -2.49451617374744    5.05698971037062
H        -3.27507282424923   -0.17996288600957    5.40076052676897
H        -4.02631194955377    1.16827740178269    3.44256694924666
C        -0.73534549431704    1.45823160606301    2.16061653015403
C        -0.45127089587482    0.45996210250561    3.09538627534493
C        -0.14360644568037    0.77348139922967    4.40415107921810
C        -0.11163609010484    2.09687598087243    4.81251805698261
C        -0.38220491451653    3.10009598255049    3.89545834983311
C        -0.68148766674064    2.78822296066425    2.58359701013265
H        -0.47691104496191   -0.57401112334341    2.78090811673301
H         0.07371966662611   -0.01567448578973    5.10949313055324
H         0.12936996294488    2.34482117127896    5.83533722811482
H        -0.34915984949066    4.13462252747739    4.20499164362612
H        -0.86577107325261    3.58365237116125    1.87867686734719
Br        1.75465315289718   -0.14734246475945   -2.77624386452693
Ni        0.29294879079923    0.08285580795401   -0.77739195698514
C        -0.34127422022708   -2.62307531756619   -0.90343806875113
C         0.86479876285645   -2.55812423259883   -0.09717064412034
C         2.56939494543053   -1.65788524643462    0.98095418275230
C        -2.00404008843475   -1.88758764021739   -2.15769359344824
N        -0.87469569352182   -1.54283493507036   -1.32823468734500
N         1.30979572201459   -1.42669164737049    0.30450768081232
O         1.57658515340076   -3.64743318622900    0.19117288573895
O        -0.90575129636741   -3.77919941511119   -1.25906752808303
C         2.76338967276947   -3.18843742476029    0.84181471719061
C        -1.99378431814528   -3.43613626782306   -2.12759060837709
H         3.34897520373570   -1.09843434343490    0.45332415035888
H        -2.90466796613973   -1.46479774375212   -1.69852343623953
H         2.84974995018546   -3.69398528858293    1.80637650396558
H        -2.91125072559717   -3.86604771355435   -1.72070281970696
H         3.62082117995056   -3.45205015392242    0.21851235708170
H        -1.79950942608715   -3.86995476982463   -3.11261911356659
C        -1.84525804937810   -1.29187361306423   -3.56183278284569
C        -5.32289917857138   -2.10506435356107   -5.92963261886646
C        -4.09096548775078   -2.60297059359554   -6.31504523053512
C        -5.42450952356195   -1.33793918786879   -4.78049267843736
C        -2.96642913983043   -2.33880765085111   -5.55180454876601
H        -0.94603659073477   -1.69595424091620   -4.03297970091328
C        -4.30093129478269   -1.07113940545437   -4.01997121073683
C        -3.05942449181168   -1.57120866889395   -4.39911538126527
H        -1.70688600438648   -0.21256960947250   -3.44993157275920
H        -6.20124461201749   -2.31199008076363   -6.52311828064680
H        -4.00361910852005   -3.19892421353677   -7.21181676261425
H        -6.38332771408191   -0.94478362258368   -4.47597554981105
H        -2.00529319792586   -2.72461943262996   -5.86160797193983
H        -4.38878159875415   -0.47451993190623   -3.12300867265189
C         2.51769987261285   -1.18325412525614    2.44040990074136
C         6.42510633389788   -1.46611115974847    4.17960036644262
C         5.44385051034215   -2.37424181462566    4.53527559577791
C         6.13290618376127   -0.45863750154191    3.27506702241248
C         4.17772895999027   -2.27921456240448    3.98340746235427
H         1.79656744490815   -1.79105762418352    2.99104803349394
C         4.86759635077867   -0.36479416785375    2.72582169128059
C         3.87684475309464   -1.27636107230722    3.07225150156225
H         2.16666885098839   -0.14992077999822    2.44937754033990
H         7.41333218527625   -1.54069356088104    4.60789207599512
H         5.66329173825654   -3.15942023359651    5.24368208187291
H         6.89305694619758    0.25615390902365    2.99736060767078
H         3.41440939963269   -2.98810391058104    4.27350145111824
H         4.64255264926989    0.42485855686458    2.02334106837139
