96
 energy: -141.244758245104 gnorm: 0.000574536795 xtb: 6.4.0 (d4b70c2)
C         0.11687387413716    1.14115428882585    1.01316800509348
C        -1.07804906635833    1.64363685270641    1.52947189455616
C        -1.21142904470096    1.91229926827245    2.87865494519130
C        -0.14283940152598    1.70673948465745    3.74677206922686
C         1.06483021417867    1.24340206778459    3.22896876623950
C         1.19661170280339    0.97532055040287    1.88142439507591
H        -1.92178894659620    1.84269225798510    0.88472784752913
H        -2.14751726560643    2.28708798871523    3.26379396312182
C        -0.23554746608010    1.97130394749182    5.19470028834424
O         0.65855555064120    1.78423817428465    5.98623820019121
O        -1.44040499447375    2.45012932628626    5.55956183476379
C        -1.59513511496689    2.73438896364506    6.93971030993058
H        -2.59969498538087    3.13260850034465    7.05833893512134
H        -1.47003395973438    1.82526008192627    7.53225700301486
H        -0.85121622904390    3.46585945766742    7.26291796964371
H         1.89662989552845    1.10121119909412    3.90336065216378
H         2.15309700312132    0.62892473698015    1.52006078609696
C         0.55727786527878    1.98045665937054   -0.96056235929566
H         1.23167060322729    2.57805016219316   -0.34637947105378
C         1.32249846470067    1.56978002684384   -2.23266867921546
H         0.65504450244633    1.44744401280665   -3.08270680024735
H         1.89541165702153    0.64660894553905   -2.10888046121506
H         2.03385470131082    2.36408350543381   -2.46965475477580
C        -0.68216466432457    2.74991356598030   -1.20992364973855
C        -1.64550325593599    2.36173380894461   -2.14705199040231
C        -2.79995694488635    3.09378259036095   -2.32398055360559
C        -3.04246174768278    4.24728198271194   -1.57961725183189
C        -2.07884495852951    4.64875532843239   -0.65496040873280
C        -0.92974683865190    3.91122503143941   -0.46876070582571
H        -1.50531337931819    1.46929680163219   -2.73872091391614
H        -3.51971253197122    2.77846758266885   -3.06525580147230
C        -4.28191588244849    5.01300088275594   -1.76001158676115
C        -4.26020881830732    6.40580568292982   -1.79119238119927
C        -5.42818015833464    7.12383715267861   -1.96622779373773
C        -6.63798772273020    6.46382165344596   -2.10404088841707
C        -6.67212608554872    5.07972880557501   -2.06947721887807
C        -5.50439997873764    4.35946458127033   -1.90291856525705
H        -3.31692116355444    6.92486348399343   -1.70078095578449
H        -5.39536794940645    8.20334452831975   -1.99745149256551
H        -7.55036915960467    7.02593577284932   -2.23815324465126
H        -7.61363531198946    4.55974978094035   -2.17195229118424
H        -5.53978267006380    3.28030998205928   -1.86159500029627
H        -2.24803310128487    5.53432079268826   -0.05956492531807
H        -0.20328656705298    4.23435168882396    0.26421896198272
Br       -0.51550368931965   -1.19643605690350   -2.36907943889877
Ni        0.07634632606321    0.03902443160001   -0.50904722342508
C        -0.01069883768919   -2.40903366397504    0.98903349718788
C         1.33944832081208   -2.39257757246935    0.44502998994383
C         3.17382559521584   -1.76215951957075   -0.61031452489745
C        -2.10483645456128   -1.82459927062840    1.38627196520896
N        -0.83179018827023   -1.45369119019189    0.80571757778153
N         1.85045888719171   -1.37781350346538   -0.13773587572543
O         2.05616557699727   -3.51404383744569    0.50965562991328
O        -0.43727515908841   -3.47602669019311    1.66667449780593
C         3.28475225785601   -3.24263902976105   -0.15592328554674
C        -1.81636326961672   -3.23941214658463    1.95297353625323
H         3.17984455179797   -1.67770055993390   -1.70380481751166
H        -2.34255064603095   -1.10578399003193    2.18031310891194
H         3.38977979547564   -3.94020987958628   -0.98959701581590
H        -1.96353908156533   -3.31003135215191    3.03236482249057
H         4.09311850477606   -3.40682486524306    0.56087233272201
H        -2.39917799636969   -4.01795754313459    1.45330213998513
C         4.30193614924000   -0.88162852756358   -0.04156636152204
C         6.63844606703952    0.91788983698640   -0.25462025973032
C         6.78524327130971   -0.54885367741938    0.13607260609730
C         5.25972097735288    1.43301057337503    0.14344425971317
C         5.67524292359489   -1.39292590977402   -0.48762355144858
C         4.17060936360085    0.57386560532065   -0.49099139449783
H         7.41574987994593    1.51129852050904    0.23017213761198
H         6.76451565651010    1.01917119485634   -1.33492341147567
H         7.75661443544303   -0.92606278357066   -0.18929081768116
H         5.16021890009899    1.40699068491852    1.23117378424325
H         6.73942820582202   -0.64036195642088    1.22382398441872
H         5.14194266257374    2.46996919537395   -0.17681244349336
H         5.81976188212001   -2.43709614189266   -0.20619613425589
H         4.26841139125659    0.61877773666111   -1.57818845876807
H         5.73988982963116   -1.33281318326336   -1.57661811372359
H         3.19068448268813    0.96351386673689   -0.22326530964834
H         4.24319766045164   -0.92536553470115    1.05319442524779
C        -3.21135124183727   -1.77499522063397    0.31843418924945
C        -5.74715178404396   -0.82093082637268   -0.83005952216484
C        -5.60232313649674   -2.22751191589904   -0.25705135553855
C        -4.40035862976142   -0.30823755286504   -1.33004347737109
C        -4.55708290073140   -2.25873665701738    0.85707116359527
C        -3.37510037567922   -0.34819985774553   -0.20500813700214
H        -6.47214944342389   -0.82802016663359   -1.64613480593968
H        -6.12394872050544   -0.15104490645251   -0.05282109969209
H        -6.56271545994809   -2.57298762260227    0.13141513154036
H        -4.05020226453496   -0.92713063849403   -2.15811677602098
H        -5.29702449512922   -2.91007271071657   -1.05293411547684
H        -4.50048128497726    0.71523301326396   -1.69570475928072
H        -4.47898339663761   -3.27341877676249    1.25295202850169
H        -3.70280515981594    0.29782526234514    0.61366621227724
H        -4.87255181438952   -1.60640567515371    1.67536068377871
H        -2.40912904661417    0.02724436222692   -0.56807357987107
H        -2.90475874739107   -2.41858131070703   -0.51414631996411
