96
 energy: -141.246169291322 gnorm: 0.000461394303 xtb: 6.4.0 (d4b70c2)
C        -0.02357005281066    0.85247913226088    1.45969503458121
C         1.04020099908199    1.47315704133169    2.11461655322304
C         0.97838365451186    2.81421913640076    2.43722882767159
C        -0.16305933268234    3.55736785464664    2.14067750662428
C        -1.25144287600161    2.92148106660141    1.54624162114699
C        -1.19018038698423    1.57890843282523    1.22857992878600
H         1.92153857199806    0.90883625295216    2.38466675759515
H         1.81040618044028    3.29302679182925    2.93118933017694
C        -0.27323892925208    4.99237356605798    2.46232421521942
O        -1.24994589997224    5.67159702184328    2.24983375553798
O         0.84598214304142    5.48518183891254    3.02816951685895
C         0.80497366495812    6.85956895887539    3.37318809776591
H        -0.03398319210542    7.05834455324495    4.04349843556138
H         1.74899866011591    7.07893355296252    3.86576623054972
H         0.68841211666767    7.47353640876161    2.47731196066747
H        -2.14337523977233    3.49861710828120    1.34908766194144
H        -2.06095004209912    1.09616141750388    0.80527632804466
C        -0.26701123944173   -1.19150553540060    2.20083382295668
H        -0.36717900864848   -0.58466386656485    3.10140361856540
C         0.88254687443569   -2.17704014584493    2.47563728874236
H         1.07355411028656   -2.88242373119150    1.67176604036360
H         1.80146518143001   -1.63869370496688    2.70054958268333
H         0.60925642185926   -2.74934300825941    3.36569576381007
C        -1.59738380718918   -1.76607527575487    1.90007263695447
C        -1.80065054552851   -2.96601536319954    1.20467632452573
C        -3.06630033625610   -3.49491061471278    1.06228174851953
C        -4.18168132258876   -2.86881379605925    1.61834439477134
C        -3.98367700367128   -1.68288489427840    2.32770166580112
C        -2.72577480295999   -1.14067024640605    2.45572442600013
H        -0.96403041835962   -3.50315065787236    0.78543173501534
H        -3.18984069710723   -4.43018174688491    0.53592132373444
C        -5.52814048314328   -3.43057299483742    1.46402870742271
C        -6.43708369811250   -3.39980951998979    2.52046612644248
C        -7.70882890064270   -3.91960129723882    2.37163655573715
C        -8.09876057044275   -4.47246249545566    1.16313677789245
C        -7.20484741754924   -4.50832292723859    0.10596838854944
C        -5.93002971122288   -3.99621307232501    0.25517964164865
H        -6.13428466806324   -2.98673484093217    3.47174084861575
H        -8.39921006991652   -3.89529475191712    3.20235577872309
H        -9.09406101707397   -4.87493696573508    1.04653498355067
H        -7.50378452516758   -4.93679654403722   -0.83967264268317
H        -5.24349195049624   -4.01712277252936   -0.57880202495479
H        -4.82948054937322   -1.17519684085763    2.76827068597539
H        -2.59655107733666   -0.22381869017494    3.01527622733516
Br        0.86634277127560   -2.33770599851005   -1.05849852168764
Ni        0.13578424422597   -0.60099449612715    0.27810209713036
C         0.90929503699177    1.17767001250926   -1.90928799872101
C        -0.35239440599392    0.60710731105870   -2.35543419291261
C        -2.22769050656269   -0.53722356304811   -2.39127023740779
C         2.77009020877855    1.44492206811631   -0.75005433144459
N         1.46746113449429    0.81168060328058   -0.82439787686839
N        -1.15156212888225   -0.00430458255477   -1.57168614523414
O        -0.62724568375350    0.62938489408725   -3.66171614367077
O         1.55512346094642    2.04850962203106   -2.68292019864451
C        -1.77030405662535   -0.20273930992860   -3.83412314257355
C         2.80015457606587    2.31010863280554   -2.03602368067166
H        -2.27613735358216   -1.61874624676743   -2.22512914146589
H         2.81173929821892    2.06016784573176    0.15577414075903
H        -1.46506920797193   -1.09066554695554   -4.39538302381853
H         2.86650341384741    3.38105748233241   -1.83174309451320
H        -2.52049357686041    0.34743251972814   -4.40538587513952
H         3.60003811732002    2.01982999292132   -2.72164982631904
C        -3.60139344363142    0.07538643843269   -2.06028167334097
C        -5.46342047899719    1.56922254485001   -0.34014441079355
C        -5.54283093613174    0.05138323739490   -0.46307511426070
C        -4.91649607670952    2.17331253204750   -1.62970943633405
C        -4.17064762718156   -0.53024477714555   -0.78124982735687
C        -3.53893296341723    1.60010601529113   -1.94888510544396
H        -6.45266885623347    1.97953013810573   -0.12836925668840
H        -4.80650245552683    1.83238271105924    0.49198935759658
H        -5.91902696710890   -0.38605198062630    0.46335541898069
H        -5.60213192450357    1.95182265300046   -2.45150669018304
H        -6.24143764534356   -0.21206658426577   -1.26114230294883
H        -4.84736528168852    3.25875482463364   -1.53504814855013
H        -4.24666748819997   -1.61334701835285   -0.89299269958258
H        -2.84031648954243    1.87662637567832   -1.15694623915742
H        -3.48590782672471   -0.33521299904410    0.04351893489872
H        -3.16879054455627    2.03390215942990   -2.88152965557788
H        -4.26868151384626   -0.19005283291096   -2.89022428114434
C         3.87090241706821    0.37206359383648   -0.68689899889882
C         6.14580919177275   -1.04364793221670    0.52338821616328
C         6.31655781354809   -0.14261169137648   -0.69616541052793
C         4.73010913086270   -1.61026551995709    0.57829711965038
C         5.27484244045341    0.97528926856534   -0.70183807914519
C         3.71484989236936   -0.47474752469494    0.57527765017051
H         6.87316437280792   -1.85649275561780    0.48577610549050
H         6.33920788207225   -0.46404127889620    1.42965714493489
H         7.31912122658558    0.29032360801826   -0.70209932567673
H         4.55209475146527   -2.25413132442886   -0.28449988351981
H         6.20418154045364   -0.74003910463485   -1.60336748754931
H         4.60651452942160   -2.21716922080530    1.47719393714805
H         5.42382988611849    1.60520324521471   -1.58116691187615
H         3.87706515833399    0.15890344895359    1.45135946780129
H         5.40559903504635    1.60460073006534    0.18215738294853
H         2.69609226505357   -0.87456536195116    0.62049697095755
H         3.75023583720335   -0.28098969308416   -1.55890876353643
