132
 energy: -180.417176989081 gnorm: 0.000809418649 xtb: 6.4.0 (d4b70c2)
C         2.55736256636049    1.15724968614173   -0.48352866270738
H         2.89927746921117    1.07471700885373   -1.51793590175050
H         1.55479265347385    1.60904086577098   -0.51070423061458
C         3.48823908723934    2.06152963019154    0.30447830693873
H         3.15567265549448    2.15808807050331    1.33945757528887
H         4.50447009517865    1.66361787132932    0.32183548060144
C         3.53347317848621    3.46353720311912   -0.32225124719537
H         3.86998696578961    3.38259840768495   -1.35875057360787
H         2.52702369632675    3.89021720378718   -0.33402380888488
C         4.46550097449892    4.39776028853212    0.44460719772212
H         4.13778718809436    4.46186400459275    1.48514794855998
H         5.47580152976352    3.98235627495484    0.44296829995535
C         4.49149794668658    5.79410626718683   -0.16497710573593
H         3.49692917957922    6.23549013999274   -0.15141838899506
H         5.16272976498737    6.44333156610862    0.39261671861460
H         4.83238549974408    5.75312246895811   -1.19725714431411
C         3.86472320740286   -1.33908928183932   -0.52460959897551
H         3.47509097818377   -2.36798229141030   -0.56996300698797
C         5.09160917062788   -1.33547963916589    0.40122751620396
H         4.88809092100765   -1.86918935076073    1.33121443063733
H         5.42411065783020   -0.32591263008018    0.66028422990588
N         6.23126643223653   -2.01910021481916   -0.19239525333095
H         6.55861504454556   -1.59207298434495   -1.04767532376741
S         6.11294027557707   -3.67961506179780   -0.40701562960412
O         4.84823834007450   -4.08495662552127   -0.96152566547591
O         7.29567182672834   -4.04726108967517   -1.13158342307851
C         6.22646599294914   -4.21384134506778    1.28960172504172
C         7.46941747673843   -4.19285684183842    1.89119485382642
C         5.08813925836145   -4.56795073824767    1.98464449360578
C         7.57515365574841   -4.53887939737787    3.22716480417366
H         8.32624765218624   -3.91370879705418    1.29917124811599
C         5.19623754212471   -4.90096136060952    3.32553018084925
H         4.13459061594051   -4.57295025954047    1.48273061356242
C         6.43704059562970   -4.88548543104779    3.94170008310718
H         8.53984587534665   -4.53170101180554    3.71314475629020
H         4.30891338957347   -5.15634850177619    3.88254339977115
H         6.52092396644920   -5.14441789307249    4.98725778123424
C         4.24290956804174   -0.94810255974738   -1.90367319629406
C         5.07380751915996    0.14469213137922   -2.18506913665219
C         5.44671664362154    0.45017758197143   -3.47960636738735
C         5.01162843811264   -0.33022341030346   -4.53820323830133
C         4.21805367447225   -1.43545656909584   -4.27908599152731
C         3.84452422744216   -1.74091001899884   -2.98451587612181
H         5.43576234033157    0.76819065680999   -1.38225514460373
H         6.08654704369418    1.30189659035106   -3.66453228265155
H         5.30273391590305   -0.08928393086229   -5.55004158729152
H         3.89961196963701   -2.07235060693298   -5.09223800907580
H         3.27860208445706   -2.63830990768291   -2.79645312400627
Br        2.28620414743882   -2.20098240506907    2.09229430917895
Ni        2.26721719815438   -0.55452213770980    0.43715646368712
N         0.70897969683849   -1.15840526642228   -0.76615025978519
N         0.69990382949813    0.30145008515183    1.52241577263278
C         0.49064419511988   -1.77173502571818   -2.06031258855173
C        -0.93563286870097   -1.32532316490954   -2.46622116258429
N        -1.36714422928167   -0.51873012575569   -1.33136200377260
C        -0.35926275558216   -0.52211482921742   -0.41721039087799
C        -0.41423453686166    0.02670018579258    0.92894332059862
N        -1.53553417575453    0.23725996059154    1.66362036597660
C        -1.12720338407855    0.77264752466426    2.95713205987155
C         0.41180253030726    0.66123398719459    2.90481312700318
H         1.24135243429381   -1.38694054309322   -2.76112543367464
C         0.68838777165750   -3.29938023442735   -1.95005373180902
H         1.72207516765242   -3.45165730380587   -1.62598823105531
C        -0.20299134412728   -3.93389712917270   -0.88740636204549
H         0.03499477395958   -4.99063480838566   -0.79650740778686
H        -0.02495891274474   -3.46791649837220    0.07950557167777
H        -1.25721514839808   -3.84771688114327   -1.14209383799296
C         0.50356295056976   -3.96713724726129   -3.30915364046689
H         1.14216322057355   -3.50134220113180   -4.05629556678048
H         0.76844450716640   -5.01899308837251   -3.24093152895170
H        -0.52813073987568   -3.89818432688988   -3.64929798160362
H        -0.94242935640778   -0.72593189809596   -3.38081060445573
H        -1.60540348230738   -2.17728084713118   -2.60700718870041
C        -2.37354625417517    0.44569251246013   -1.44222200286258
C        -3.57448516193292    0.12358218868921   -2.06528417081525
C        -4.55435246596551    1.08804691908681   -2.17319848766055
C        -4.34484395705080    2.37223973368799   -1.69951800972223
C        -3.13685405755593    2.72576984671875   -1.11007885933203
C        -2.16521503715325    1.74052978777784   -0.98094034664183
H        -3.73561024417801   -0.86936568090351   -2.45118707337119
H        -5.49556186778841    0.84065883695007   -2.64120878500021
H        -5.13403490168830    3.09590170461389   -1.81381188410778
C        -2.82870623584269    4.13931926640243   -0.63829497529677
C        -2.61045614765473    4.12572482281717    0.87961327223017
H        -3.53166821671879    3.84738150900856    1.38769640617119
H        -1.83388266357457    3.41683831004706    1.15118352965722
H        -2.31200934017201    5.11336560313195    1.22549238172249
C        -1.55483975794728    4.63589184201236   -1.33817455238478
H        -1.67668966679152    4.59195338921547   -2.41839486626359
H        -1.35195056666204    5.66674005643721   -1.05595749664605
H        -0.68894118765670    4.03758032823522   -1.06876752649647
C        -3.95663075124593    5.12517026765760   -0.95313962961137
H        -3.67516106113955    6.11805400988669   -0.60827668379124
H        -4.13951055525503    5.17987659212279   -2.02368741261501
H        -4.87753120248123    4.84492819641775   -0.44723347597241
H        -1.20847329705730    1.97601372575887   -0.53898366279200
C        -2.84473587178254   -0.20976492636091    1.43948991916072
C        -3.90518291452247    0.62995633623585    1.76344282374448
C        -5.19656666898597    0.18840762104089    1.57009499874388
C        -5.44250474084677   -1.08903241088020    1.09803762845699
C        -4.39814434057506   -1.96033151643732    0.81020299287694
C        -3.09707707120540   -1.49268999145076    0.96807748514535
H        -3.71510413681347    1.61678121994084    2.15288304464228
H        -6.02520405559852    0.84171253369128    1.79999363485042
H        -6.46623902445875   -1.39907019502075    0.97490241102034
C        -4.64257434411051   -3.38934758761255    0.34538490148985
C        -3.75931260985721   -4.35838455209738    1.14412449752103
H        -3.93845343067977   -4.23756147218188    2.21018620943678
H        -3.99472038534217   -5.38461251955752    0.87081113736058
H        -2.70219472862341   -4.20035115015926    0.95512666895533
C        -4.30226646735596   -3.48336557562627   -1.14713251062776
H        -4.39957446285159   -4.51020199456989   -1.49341191199389
H        -4.97689883458956   -2.85676215122104   -1.72764218685942
H        -3.28313169698003   -3.15241027406911   -1.32641113483409
C        -6.09965986200519   -3.82439960399821    0.53434050722456
H        -6.20168424404913   -4.87188475271920    0.25843187450998
H        -6.40507378487512   -3.71635852276405    1.57246845880322
H        -6.77319378552416   -3.25033060854043   -0.09756862449263
H        -2.25426143292580   -2.13176089158162    0.75555025239567
H        -1.56230950988399    0.17998553293587    3.76429887250041
H        -1.46241038189181    1.80916981096085    3.06400164293775
H         0.75575868014631   -0.17518514134532    3.52947123052070
C         1.18006387292174    1.90809495292142    3.36577234844644
H         2.23865201518386    1.68209652745344    3.19676686363232
C         0.97566216774214    2.13175081533614    4.86145858804713
H         1.56268019274601    2.98422818315493    5.19499296239039
H        -0.07082072376121    2.32909146865655    5.08524371387749
H         1.28941276484903    1.25677691857418    5.42548219840437
C         0.81700131189745    3.16203690434200    2.57290208862814
H         1.55228278029063    3.94292216019749    2.75317518882692
H         0.80130468329030    2.94899370031060    1.50662531668351
H        -0.15478423225679    3.55040488575618    2.87114683422778
